{"chemical": {"XLogP3": 1.2,"XLogP3_AA": 0,"HydrogenDonors": 1,"HydrogenAcceptor": 4,"RotatableBonds": 3,"ExactMass": 180.04225873,"TopologicalPolarSurfaceArea": 63.6,"HeavyAtoms": 13,"FormalCharge": 0,"Complexity": 212,"IsotopicAtomCount": 0,"AtomDefStereoCount": 0,"AtomUdefStereoCount": 0,"BondDefStereoCount": 0,"BondUdefStereoCount": 0,"ComponentCount": 0,"TautoCount": 0,"CovalentlyBonded": 1,"MeltingPoint": null,"Solubility": {"value": 10,"unit": "mg\/mL"},"LogP": 1.18,"CCS": {"value": "146.8 Å² [M+Na]+ [CCS Type: DT, Method: stepped-field]","reference": "https:\/\/pubs.rsc.org\/en\/content\/articlelanding\/2017\/sc\/c7sc03464d"}},"kingdom": null,"super_class": null,"class": null,"sub_class": null,"molecular_framework": null,"organism": [],"pathways": null,"samples": "Platelet","ID": "2244","formula": "C9H8O4","exact_mass": 180.04225873,"name": "Aspirin","IUPACName": "2-acetyloxybenzoic acid","description": "","synonym": ["(non-d)Acetylsalicylic Acid-d3", "1oxr", "2-(Acetyloxy)-benzoic acid", "2-(acetyloxy)benzoate", "2-(Acetyloxy)benzoic acid", "2-(Acetyloxy)benzoic Acid", "2-acetoxy benzoic acid", "2-Acetoxybenzenecarboxylic acid", "2-Acetoxybenzoate", "2-Acetoxybenzoic acid", "2-acetyloxybenzoic acid", "2-Acetylsalicyclic acid", "2-Carboxyphenyl acetate", "4-10-00-00138 (Beilstein Handbook Reference)", "8-hour Bayer", "A.S.A.", "A.S.A. empirin", "Acenterine", "Acesal", "Acesan", "Acetard", "Aceticyl", "Acetilsalicilico", "Acetilum acidulatum", "Acetisal", "Acetonyl", "Acetophen", "Acetosal", "Acetosalic acid", "Acetosalin", "Acetoxybenzoic acid", "acetyl salicyclic acid", "acetyl salicylate", "acetyl salicylic acid", "acetyl-salicylic acid", "Acetylin", "Acetylsal", "Acetylsalicyclic acid", "Acetylsalicylate", "Acetylsalicylic Acid", "ACETYLSALICYLIC ACID", "Acetylsalicylic acid (who-ip)", "Acetylsalicylic Acid 1.0 mg\/ml in Acetonitrile", "Acetylsalicylic acid for peak identification, European Pharmacopoeia (EP) Reference Standard", "Acetylsalicylic acid-[13C]", "Acetylsalicylic acid-carboxy-14c", "Acetylsalicylic acid, >=99.0%", "Acetylsalicylic acid, >=99%", "Acetylsalicylic acid, 99%", "Acetylsalicylic acid, analytical standard", "Acetylsalicylic acid, BioReagent, plant cell culture tested, >=99.0%", "Acetylsalicylic acid, European Pharmacopoeia (EP) Reference Standard", "Acetylsalicylic acid, Vetec(TM) reagent grade, >=99%", "ACETYLSALICYLIC ACID; ASPIRIN", "AcetylsalicylicAcid", "Acetylsalicylicum acidum", "Acetylsalicylsaeure", "Acetylsalicylsaure", "Acetylsalicylsaure [German]", "Acetylsalycilic acid", "Acetyonyl", "Acetysal", "Acetysalicylic acid", "Acid, Acetylsalicylic", "acide 2-(acetyloxy)benzoique", "Acide acetylsalicylique", "Acide acetylsalicylique [French]", "Acido acetilsalicilico", "Acido acetilsalicilico [Italian]", "Acido O-acetil-benzoico", "Acido O-acetil-benzoico [Italian]", "Acidum acetylsalicylicum", "Acimetten", "Acisal", "Acylpyrin", "Adiro", "AI3-02956", "AIN", "Aloxiprimum", "Arthritis Pain Formula Maximum Strength (Salt\/Mix)", "ASA", "Asacard", "Asagran", "Asaphen", "Asatard", "Ascoden-30", "Ascolong", "Ascriptin (Salt\/Mix)", "Aspalon", "Aspalon (JAN)", "Aspec", "Aspergum", "Aspir-Mox", "Aspirdrops", "aspirin", "Aspirin", "Aspirin (Acetyl Salicylic Acid), Pharmaceutical Secondary Standard; Certified Reference Material", "aspirin (acetylsalicylic acid)", "Aspirin (JP17\/USP)", "Aspirin [USP:BAN:JAN]", "Aspirin form II", "Aspirin USP-26", "Aspirin, British Pharmacopoeia (BP) Reference Standard", "Aspirin, meets USP testing specifications", "Aspirin, United States Pharmacopeia (USP) Reference Standard", "Aspirin,(S)", "Aspirina 03", "Aspirine", "Asprin", "Aspro", "Aspro Clear", "Aspropharm", "Asteric", "Azetylsalizylsaeure", "Bayer", "Bayer Aspirin 8 Hour", "Bayer Buffered", "Bayer Children's Aspirin", "Bayer Enteric 81 mg Adult Low Strength", "Bayer Extra Strength Aspirin for Migraine Pain", "Bayer Plus", "Benaspir", "Benzoic acid, 2-(acetyloxy)-", "benzoic acid, 2-acetoxy-", "Benzoicacid, 2-(acetyloxy)-", "Bi-prin", "Bialpirina", "Bialpirinia", "Cardioaspirin", "Cardioaspirina", "CAS-50-78-2", "Cemirit", "CHEMBL25", "Claradin", "Clariprin", "Colfarit", "Colsprin", "component of Ascodeen-30", "component of Ascodeen-30 (Salt\/Mix)", "component of Coricidin", "component of Darvon with A.S.A", "component of Darvon with A.S.A (Salt\/Mix)", "component of Midol", "component of Persistin", "component of Robaxisal", "component of St. Joseph Cold Tablets", "component of Synirin", "component of Zactirin", "component of Zactirin (Salt\/Mix)", "Contrheuma retard", "Decaten", "Delgesic", "Dispril", "DivK1c_000555", "Dolean pH 8", "Duramax", "Durlaza", "Durlaza (TN)", "Durlaza ER", "Easprin", "Easprin (TN)", "ECM", "Ecolen", "Ecotrin", "Empirin", "Empirin with Codeine (Salt\/Mix)", "Endosprin", "Endydol", "Entericin", "Enterophen", "Enterosarein", "Enterosarine", "Entrophen", "Extren", "Globentyl", "Globoid", "Helicon", "IDI1_000555", "Idragin", "Istopirin", "Kapsazal", "KBio1_000555", "KBio2_001725", "KBio2_002271", "KBio2_004293", "KBio2_004839", "KBio2_006861", "KBio2_007407", "KBio3_002149", "KBio3_002751", "Kyselina 2-acetoxybenzoova", "Kyselina 2-acetoxybenzoova [Czech]", "Kyselina acetylsalicylova", "Kyselina acetylsalicylova [Czech]", "Levius", "Lopac0_000038", "Magnecyl", "Measurin", "Medisyl", "Micrainin (Salt\/Mix)", "Micristin", "Miniasal", "NCI60_002222", "Neuronika", "Novid", "Nu-seals", "Nu-seals aspirin", "o-(Acetyloxy)benzoate", "o-(Acetyloxy)benzoic acid", "o-Acetoxybenzoate", "o-Acetoxybenzoic acid", "o-acetyl-salicylic acid", "O-Acetylsalicylic acid", "O-Acetylsalicylic acid; Aspirin", "o-Carboxyphenyl acetate", "Percodan (Salt\/Mix)", "Percodan Demi (Salt\/Mix)", "Persistin", "Pharmacin", "Pirseal", "Polopirin", "Polopiryna", "Pravigard PAC (Salt\/Mix)", "Premaspin", "R16CO5Y76E", "Rheumin tabletten", "Rheumintabletten", "Rhodine", "Rhonal", "Ronal", "Salacetin", "Salcetogen", "Saletin", "Salicylic acid acetate", "Salicylic acid, acetate", "Salicylic acid, acetyl-", "Salospir", "Salycylacetylsalicylic acid", "Solfrin", "Solprin", "Solprin acid", "Solpyron", "Solupsan", "Soma Compound (Salt\/Mix)", "Spectrum2_001899", "Spectrum3_001295", "Spectrum4_000099", "Spectrum5_000740", "Spira-Dine", "St. Joseph", "St. Joseph Aspirin for Adults", "Tasprin", "Temperal", "Toldex", "Tox21_110076", "Tox21_110076_1", "Tox21_202117", "Tox21_300146", "Tox21_500038", "Triaminicin", "Triple-sal", "UNII-R16CO5Y76E", "WLN: QVR BOV1", "XAXA", "Yasta", "ZINC53", "Zorprin", "ZORprin"],"xref": {"chebi": "CHEBI:15365","KEGG": "C01405","pubchem": "2244","HMDB": "HMDB0001879","metlin": null,"DrugBank": "DB00945","ChEMBL": null,"Wikipedia": "Aspirin","lipidmaps": null,"MeSH": "Aspirin","ChemIDplus": "0000050782","CAS": ["50-78-2", "50-78-2", "50-78-2", "50-78-2", "50-78-2", "50-78-2", "50-78-2", "50-78-2", "50-78-2", "50-78-2", "50-78-2", "50-78-2", "50-78-2", "50-78-2"],"InChIkey": "BSYNRYMUTXBXSQ-UHFFFAOYSA-N","InChI": "InChI=1S\/C9H8O4\/c1-6(10)13-8-5-3-2-4-7(8)9(11)12\/h2-5H,1H3,(H,11,12)","SMILES": "CC(=O)OC1=CC=CC=C1C(=O)O"}}