{"chemical": {"XLogP3": -5.7,"XLogP3_AA": 0,"HydrogenDonors": 7,"HydrogenAcceptor": 17,"RotatableBonds": 8,"ExactMass": 506.99574658,"TopologicalPolarSurfaceArea": 279,"HeavyAtoms": 31,"FormalCharge": 0,"Complexity": 800,"IsotopicAtomCount": 0,"AtomDefStereoCount": 4,"AtomUdefStereoCount": 0,"BondDefStereoCount": 0,"BondUdefStereoCount": 0,"ComponentCount": 0,"TautoCount": 0,"CovalentlyBonded": 1,"MeltingPoint": {"value": 176,"unit": "°C"},"Solubility": {"value": 1000000,"unit": "mg\/L"},"LogP": -5.5,"CCS": [{"value": "196.4 Å² [M+H]+ [CCS Type: DT, Method: single field calibrated with Agilent tune mix (Agilent)]","reference": "https:\/\/pubs.acs.org\/doi\/abs\/10.1021\/acs.analchem.6b03091"}, {"value": "185.74 Å² [M-H]- [CCS Type: DT, Method: single field calibrated with Agilent tune mix (Agilent)]","reference": "https:\/\/pubs.acs.org\/doi\/abs\/10.1021\/acs.analchem.6b03091"}, {"value": "198.86 Å² [M-H]- [CCS Type: DT, Method: stepped-field]","reference": "https:\/\/pubs.rsc.org\/en\/content\/articlelanding\/2017\/sc\/c7sc03464d"}, {"value": "196.6 Å² [M+H]+ [CCS Type: DT, Method: single field calibrated with ESI Low Concentration Tuning Mix (Agilent)]","reference": "https:\/\/pubs.acs.org\/doi\/abs\/10.1021\/acs.analchem.8b04322"}, {"value": "196.9 Å² [M+H]+ [CCS Type: DT, Method: single field calibrated with ESI Low Concentration Tuning Mix (Agilent)]","reference": "https:\/\/pubs.acs.org\/doi\/abs\/10.1021\/acs.analchem.8b04322"}, {"value": "204 Å² [M+Na]+ [CCS Type: DT, Method: single field calibrated with ESI Low Concentration Tuning Mix (Agilent)]","reference": "https:\/\/pubs.acs.org\/doi\/abs\/10.1021\/acs.analchem.8b04322"}, {"value": "204.2 Å² [M+Na]+ [CCS Type: DT, Method: single field calibrated with ESI Low Concentration Tuning Mix (Agilent)]","reference": "https:\/\/pubs.acs.org\/doi\/abs\/10.1021\/acs.analchem.8b04322"}, {"value": "188.2 Å² [M-H]- [CCS Type: DT, Method: single field calibrated with ESI Low Concentration Tuning Mix (Agilent)]","reference": "https:\/\/pubs.acs.org\/doi\/abs\/10.1021\/acs.analchem.8b04322"}, {"value": "188.3 Å² [M-H]- [CCS Type: DT, Method: single field calibrated with ESI Low Concentration Tuning Mix (Agilent)]","reference": "https:\/\/pubs.acs.org\/doi\/abs\/10.1021\/acs.analchem.8b04322"}, {"value": "193.5 Å² [M+Na-2H]- [CCS Type: DT, Method: single field calibrated with ESI Low Concentration Tuning Mix (Agilent)]","reference": "https:\/\/pubs.acs.org\/doi\/abs\/10.1021\/acs.analchem.8b04322"}, {"value": "[\"193.5 Å² [M-2H+Na]-\",\"188.3 Å² [M-H]-\",\"196.7 Å² [M+H]+\",\"204.2 Å² [M+Na]+\"]","reference": "S50 | CCSCOMPEND | The Unified Collision Cross Section (CCS) Compendium | DOI:10.5281\/zenodo.2658162"}]},"kingdom": null,"super_class": null,"class": null,"sub_class": null,"molecular_framework": null,"organism": "Escherichia coli (strain K12, MG1655)","pathways": null,"ID": "5957","formula": "C10H16N5O13P3","exact_mass": 506.99574658,"name": "Adenosine-5'-triphosphate","synonym": ["({[({[(2R,3S,4R,5R)-5-(6-amino-9H-purin-9-yl)-3,4-dihydroxyoxolan-2-yl]methoxy}(hydroxy)phosphoryl)oxy](hydroxy)phosphoryl}oxy)phosphonic acid", "[[(2R,3S,4R,5R)-5-(6-aminopurin-9-yl)-3,4-dihydroxy-tetrahydrofuran-2-yl]methoxy-hydroxy-phosphoryl] phosphono hydrogen phosphate", "[[[(2R,3S,4R,5R)-5-(6-Aminopurin-9-yl)-3,4-dihydroxy-oxolan-2-yl]methoxy-hydroxy-phosphoryl]oxy-hydroxy-phosphoryl]oxyphosphonic acid", "((2R,3S,4R,5R)-5-(6-Amino-9H-purin-9-yl)-3,4-dihydroxytetrahydrofuran-2-yl)methyl tetrahydrogen triphosphate", "[(2R,3S,4R,5R)-5-(6-Aminopurin-9-yl)-3,4-dihydroxyoxolan-2-yl]methyl (hydroxy-phosphonooxyphosphoryl) hydrogen phosphate;((2R,3S,4R,5R)-5-(6-Amino-9H-purin-9-yl)-3,4-dihydroxytetrahydrofuran-2-yl)methyl tetrahydrogen triphosphate", "[(2R,3S,4R,5R)-5-(6-aminopurin-9-yl)-3,4-dihydroxyoxolan-2-yl]methyl (hydroxy-phosphonooxyphosphoryl) hydrogen phosphate", "[[(2R,3S,4R,5R)-5-(6-aminopurin-9-yl)-3,4-dihydroxyoxolan-2-yl]methoxy-hydroxyphosphoryl] phosphono hydrogen phosphate", "1b38", "1b39", "1gz3", "1gz4", "1kxp", "1m83", "1mau", "1maw", "1r0x", "1r10", "1t44", "1vjc", "1vjd", "1xsc", "1y8p", "1yid", "2cbz", "2fgh", "3-Methylbenzo[d]thiazol-3-iuM chloride", "3h-adenosine triphosphate", "5'-(tetrahydrogen triphosphate) Adenosine", "5'-Adenyldiphosphoric acid", "5'-Atp", "8L70Q75FXE", "9-beta-D-Arabinofuranosyladenine 5'-triphosphate", "9H-Purin-6-amine, 9-[5-O-[hydroxy[[hydroxy(phosphonooxy)phosphinyl]oxy]phosphinyl]-.beta.-D-ribofuranosyl]-", "9H-purin-6-amine, 9-[5-O-[hydroxy[[hydroxy(phosphonooxy)phosphinyl]oxy]phosphinyl]", "Adenosine 5 inverted exclamation mark -triphosphate", "adenosine 5' triphosphate", "Adenosine 5'-(tetrahydrogen triphosphate)", "Adenosine 5'-triphosphate", "Adenosine 5'-triphosphate; Triphosphaden", "Adenosine 5'-triphosphorate", "Adenosine 5'-triphosphoric acid", "Adenosine triphosphat-", "Adenosine triphosphate", "Adenosine Triphosphate", "Adenosine Triphosphate, Calcium Salt", "Adenosine Triphosphate, Chromium Ammonium Salt", "Adenosine Triphosphate, Chromium Salt", "Adenosine Triphosphate, Magnesium Chloride", "Adenosine Triphosphate, Magnesium Salt", "Adenosine Triphosphate, Manganese Salt", "Adenosine-5'-(tetrahydrogen triphosphate)", "adenosine-5'-triphosphate", "adenosine-5'-triphosphoric acid", "adenosine-triphosphate", "Adenosine, 5'-(tetrahydrogen triphosphate)", "Adenosintriphosphorsaeure", "adenylpyrophosphate", "Adenylpyrophosphate", "Adenylpyrophosphorate", "Adenylpyrophosphoric acid", "Adephos", "Adetol", "Ado-5'-P-P-P", "Adynol", "Ara-ATP", "Atipi", "ATP", "ATP (nucleotide)", "ATP MgCl2", "ATP-MgCl2", "Atriphos", "BDBM2", "Bio1_000406", "Bio1_000895", "Bio1_001384", "C10H16N5O13P3", "CaATP", "Cardenosine", "CAS-56-65-5", "Chromium Adenosine Triphosphate", "Cr(H2O)4 ATP", "CrATP", "Fosfobion", "Glucobasin", "H4atp", "Magnesium Adenosine Triphosphate", "Manganese Adenosine Triphosphate", "MgATP", "MnATP", "Myotriphos", "Phosphobion", "Striadyne", "Tox21_112044", "Triadenyl", "Triphosaden", "Triphosadenine (DCF)", "Triphosphaden", "Triphosphoric acid adenosine ester", "UNII-8L70Q75FXE"],"xref": {"chebi": "CHEBI:15422","KEGG": "C00002","pubchem": "5957","HMDB": "HMDB0000538","metlin": null,"DrugBank": "DB00171","ChEMBL": null,"Wikipedia": "Adenosine_triphosphate","CAS": ["56-65-5", "56-65-5", "3714-60-1", "11016-17-4", "51963-61-2", "126339-06-8", "56-65-5", "56-65-5", "56-65-5", "56-65-5", "11016-17-4", "51963-61-2", "56-65-5"],"InChIkey": "ZKHQWZAMYRWXGA-KQYNXXCUSA-N","InChI": "InChI=1S\/C10H16N5O13P3\/c11-8-5-9(13-2-12-8)15(3-14-5)10-7(17)6(16)4(26-10)1-25-30(21,22)28-31(23,24)27-29(18,19)20\/h2-4,6-7,10,16-17H,1H2,(H,21,22)(H,23,24)(H2,11,12,13)(H2,18,19,20)\/t4-,6-,7-,10-\/m1\/s1","SMILES": "C1=NC(=C2C(=N1)N(C=N2)C3C(C(C(O3)COP(=O)(O)OP(=O)(O)OP(=O)(O)O)O)O)N"}}