{"chemical": {"XLogP3": 0,"XLogP3_AA": 0,"HydrogenDonors": 5,"HydrogenAcceptor": 5,"RotatableBonds": 1,"ExactMass": 287.05556307,"TopologicalPolarSurfaceArea": 102,"HeavyAtoms": 21,"FormalCharge": 1,"Complexity": 364,"IsotopicAtomCount": 0,"AtomDefStereoCount": 0,"AtomUdefStereoCount": 0,"BondDefStereoCount": 0,"BondUdefStereoCount": 0,"ComponentCount": 0,"TautoCount": 0,"CovalentlyBonded": 1,"MeltingPoint": null,"Solubility": null,"LogP": 0,"CCS": [{"value": "168.33 Å² [M]+ [CCS Type: DT, Method: stepped-field]","reference": "https:\/\/pubs.rsc.org\/en\/content\/articlelanding\/2017\/sc\/c7sc03464d"}, {"value": "167.1 Å² [M*]+","reference": "S50 | CCSCOMPEND | The Unified Collision Cross Section (CCS) Compendium | DOI:10.5281\/zenodo.2658162"}]},"kingdom": null,"super_class": null,"class": null,"sub_class": null,"molecular_framework": null,"organism": [],"pathways": null,"ID": "128861","formula": "C15H11O6+","exact_mass": 287.05556307,"name": "Cyanidin","synonym": ["1-Benzopyrylium, 2-(3,4-dihydroxyphenyl)-3,5,7-trihydroxy-", "1-benzopyrylium, 2-(3,4-dihydroxyphenyl)-3,5,7-trihydroxy-, chloride", "1-benzopyrylium, 2-(3,4-dihydroxyphenyl)-3,5,7-trihydroxy-, chloride (1:1)", "2-(3,4-dihydroxyphenyl) chromenylium-3,5,7-triol", "2-(3,4-Dihydroxyphenyl)-3,5,7-trihydroxy-1-Benzopyrylium", "2-(3,4-dihydroxyphenyl)-3,5,7-trihydroxy-1-benzopyrylium chloride", "2-(3,4-Dihydroxyphenyl)-3,5,7-trihydroxy-1-benzopyrylium chloride", "2-(3,4-dihydroxyphenyl)-3,5,7-trihydroxychromenium", "2-(3,4-dihydroxyphenyl)-3,5,7-trihydroxychromenylium", "2-(3,4-dihydroxyphenyl)chromenylium-3,5,7-triol", "3 3' 4' 5 7-pentahydroxy flavylium chloride", "3,3',4,5,7-Pentahydroxyflavylium chloride", "3,3',4',5,7-pentahydroxy-2-phenylbenzopyrylium chloride", "3,3',4',5,7-Pentahydroxy-2-phenylbenzopyrylium chloride", "3,3',4',5,7-pentahydroxyflavylium", "3,3',4',5,7-Pentahydroxyflavylium acid anion", "3,3',4',5,7-Pentahydroxyflavylium chloride", "3,3',4',5,7-Pentahydroxyflavyliumchlorid", "3,3'',4'',5,7-pentahydroxyflavylium", "3,5,7,3',4'-pentahydroxyflavylium", "3,5,7,3',4'-Pentahydroxyflavylium", "3,5,7,3'''',4''''-Pentahydroxyflavylium", "Benzopyrylium, 2-(3,4-dihydroxyphenyl)-3,5,7-trihydroxy-, acid anion", "chlorure de 3,3',4',5,7-pentahydroxyflavylium", "cyanidin", "Cyanidin", "cyanidin cation", "cyanidin chloride", "cyanidin ion", "cyanidin(1+)", "cyanidine", "cyanidol", "Cyanidol", "cyanidol chloride", "Cyanidol chloride", "flavylium, 3,3',4',5,7-pentahydroxy-", "Flavylium, 3,3',4',5,7-pentahydroxy-", "Flavylium, 3,3',4',5,7-pentahydroxy-, acid anion", "flavylium, 3,3',4',5,7-pentahydroxy-, chloride"],"xref": {"chebi": "CHEBI:27843","KEGG": "C05905","pubchem": "128861","HMDB": "HMDB0002708","metlin": null,"DrugBank": null,"ChEMBL": null,"Wikipedia": "Cyanidin","CAS": ["13306-05-3", "13306-05-3", "13306-05-3", "528-58-5", "13306-05-3"],"InChIkey": "VEVZSMAEJFVWIL-UHFFFAOYSA-O","InChI": "InChI=1S\/C15H10O6\/c16-8-4-11(18)9-6-13(20)15(21-14(9)5-8)7-1-2-10(17)12(19)3-7\/h1-6H,(H4-,16,17,18,19,20)\/p+1","SMILES": "C1=CC(=C(C=C1C2=[O+]C3=CC(=CC(=C3C=C2O)O)O)O)O"}}